! Touchstone file exported from HFSS 2019.2.0
!        File:           C:/Users/jgarrett/Documents/Ansoft/Waveguide Cavity/WR-28-waveguide-cavity.aedt
!        Generated:      11:51:04 AM  Feb 22, 2021
!        Design:         brass-1.5mm-iris-hdpe
!        Project:        WR-28-waveguide-cavity
!        Setup:          Setup1
!        Solution:       Sweep
!
! Variables:
!        irisD = 1.59mm
!        irisT = 5mil
!        waveguideL = 10mm
!
!Data is not renormalized
# GHZ S MA
! Modal data exported
! Port[1] = 1:1
! Port[2] = 2:1
21.1                           0.999951686867159 179.900773495011 0.00693048231777065 88.4303180570984 0.00693048231777064 88.4303180570984 0.999378138033744 177.541951810838 
! Gamma         !               0                20.8210316122592 0.222826653852094 504.642644539971 
! Port Impedance8001.47300089272 0                330.132404815719 0.145771071646731 

21.11                          0.999460929367166 -178.727195424238 0.00727780130034858 88.9654187666815 0.00727780130034806 88.9654187666804 0.999375187021074 177.539799031418 
! Gamma         !               0                24.8782150341872 0.222851406061694 505.064988114273 
! Port Impedance6699.75232959478 0                330.012672832053 0.14561252490177 

21.12                          0.999054804142373 -177.885304403292 0.00761061373147378 89.2780486939775 0.0076106137314728 89.2780486939757 0.999372275229796 177.537646267333 
! Gamma         !               0                28.3623634505799 0.222876284306365 505.487178677714 
! Port Impedance5879.51128463697 0                329.893240783089 0.145454489895973 

21.13                          0.998722006864252 -177.362243665313 0.00792965826050901 89.4634299560107 0.00792965826050765 89.4634299560083 0.999369401872404 177.53549353305  
! Gamma         !               0                31.4644178246712 0.222901288124366 505.909216613366 
! Port Impedance5302.36388709075 0                329.774107559856 0.145296964260159 

21.14                          0.998452555649736 -177.046106506302 0.00823565656900157 89.5697160472291 0.00823565656899991 89.5697160472263 0.999366566174639 177.533340842542 
! Gamma         !               0                34.2882395132099 0.222926417056268 506.331102302884 
! Port Impedance4867.98832505739 0                329.655272058906 0.14513994563945 

21.15                          0.998237670030238 -176.870346157404 0.00852930607554399 89.6242937829086 0.00852930607554204 89.6242937829057 0.999363767375307 177.5311882093   
! Gamma         !               0                36.8977641614241 0.222951670644945 506.752836126515 
! Port Impedance4525.84893062086 0                329.536733182274 0.144983431693169 

21.16                          0.99806965106137 -176.792390251189 0.00881127557801825 89.6439722540254 0.0088112755780161 89.6439722540222 0.999361004726106 177.529035646342 
! Gamma         !               0                39.3356642582294 0.222977048435553 507.174418463105 
! Port Impedance4247.35838222289 0                329.418489837451 0.144827420094727 

21.17                          0.997941766328333 -176.78361892959 0.0090822028649943 89.6396348837452 0.00908220286499197 89.6396348837419 0.999358277491449 177.526883166229 
! Gamma         !               0                41.6321007935859 0.223002549975522 507.595849690105 
! Port Impedance4014.96962575712 0                329.300540937341 0.144671908531527 

21.18                          0.997848142144393 -176.824102537707 0.00934269366016149 89.6186110221525 0.00934269366015902 89.6186110221493 0.999355584948291 177.524730781069 
! Gamma         !               0                43.8093255102792 0.223028174814537 508.017130183579 
! Port Impedance3817.23697021267 0                329.182885400236 0.144516894704851 

21.19                          0.997783664188276 -176.899601956964 0.00959332147207003 89.5859855506846 0.00959332147206747 89.5859855506814 0.999352926385962 177.52257850253  
! Gamma         !               0                45.8843114601381 0.223053922504524 508.438260318209 
! Port Impedance3646.33419330001 0                329.065522149774 0.144362376329769 

21.2                           0.997743887088484 -176.999749220998 0.00983462805606907 89.5453675204414 0.00983462805606641 89.5453675204384 0.99935030110599 177.520426341854 
! Gamma         !               0                47.8703553987589 0.223079792599638 508.859240467306 
! Port Impedance3496.70457330008 0                328.948450114911 0.144208351135024 

21.21                          0.997724952961858 -177.11688928858 0.0100671242845355 89.499363595282  0.0100671242845327 89.499363595279  0.999347708421943 177.518274309859 
! Gamma         !               0                49.7781042745018 0.22310578465625 509.28007100281  
! Port Impedance3364.27933374185 0                328.831668229885 0.144054816862943 

21.22                          0.997723518588183 -177.245313684581 0.010291291281952 89.449881347558  0.0102912912819493 89.4498813475551 0.999345147659257 177.516122416955 
! Gamma         !               0                51.6162402316357 0.223131898232927 509.700752295305 
! Port Impedance3246.00171509731 0                328.715175434185 0.143901771269329 

21.23                          0.997736690704131 -177.380737278265 0.0105075817231742 89.3983299934006 0.0105075817231714 89.3983299933979 0.999342618155072 177.513970673153 
! Gamma         !               0                53.3919534898644 0.223158132890424 510.121284714018 
! Port Impedance3139.5247822464  0                328.598970672517 0.143749212123365 

21.24                          0.997761968791163 -177.519931723254 0.0107164212225757 89.3457569524061 0.0107164212225729 89.3457569524035 0.999340119258069 177.51181908807  
! Gamma         !               0                55.1112782523216 0.223184488191671 510.54166862683  
! Port Impedance3043.01267013567 0                328.483052894772 0.143597137207518 

21.25                          0.997797194685593 -177.660463078623 0.0109182097626645 89.2929429547974 0.0109182097626617 89.2929429547949 0.999337650328316 177.509667670945 
! Gamma         !               0                56.7793372193877 0.223210963701753 510.961904400282 
! Port Impedance2955.00587081717 0                328.367421055992 0.143445544317436 

21.26                          0.997840508334304 -177.800500586126 0.0111133231258024 89.2404696312528 0.0111133231257997 89.2404696312503 0.999335210737097 177.507516430643 
! Gamma         !               0                58.400523378376  0.223237558987901 511.381992399582 
! Port Impedance2874.3275222387  0                328.252074116341 0.143294431261855 

21.27                          0.997890309041722 -177.938675166967 0.0113021143035891 89.1887683960857 0.0113021143035864 89.1887683960835 0.999332799866766 177.505365375665 
! Gamma         !               0                59.9786376803483 0.22326427361948 511.801932988608 
! Port Impedance2800.01672245125 0                328.137011041072 0.143143795862506 

21.28                          0.997945221592151 -178.073973346314 0.0114849148664405 89.1381563449335 0.0114849148664379 89.1381563449315 0.999330417110584 177.503214514158 
! Gamma         !               0                61.5169950212136 0.223291107167971 512.22172652992  
! Port Impedance2731.28011652864 0                328.022230800493 0.142993635954012 

21.29                          0.99800406667889 -178.205656852879 0.0116620362817419 89.0888629703537 0.0116620362817393 89.0888629703518 0.999328061872566 177.501063853923 
! Gamma         !               0                63.018507013548  0.223318059206963 512.641373384762 
! Port Impedance2667.4561193445  0                327.907732369941 0.142843949383804 

21.3                           0.998065835122774 -178.333201101463 0.0118337711732396 89.0410502773116 0.0118337711732371 89.0410502773098 0.999325733567331 177.498913402425 
! Gamma         !               0                64.485747474309  0.223345129312134 513.060873913072 
! Port Impedance2607.98805297957 0                327.793514729746 0.142694734012018 

21.31                          0.998129665414448 -178.45624774286 0.0120003945174774 88.9948280844526 0.0120003945174749 88.994828084451  0.999323431619949 177.496763166797 
! Gamma         !               0                65.9210048448235 0.223372317061244 513.480228473484 
! Port Impedance2552.40368728815 0                327.679576865203 0.142545987711411 

21.32                          0.99819482416473 -178.57456781235 0.0121621647753717 88.9502657674604 0.0121621647753693 88.9502657674588 0.999321155465791 177.494613153852 
! Gamma         !               0                67.3263245952815 0.223399622034119 513.899437423338 
! Port Impedance2500.29945467536 0                327.565917766538 0.142397708367263 

21.33                          0.998260689094473 -178.688032942904 0.0123193249586754 88.9074013418173 0.0123193249586731 88.907401341816  0.999318904550382 177.492463370094 
! Gamma         !               0                68.7035438576092 0.223427043812636 514.318501118687 
! Port Impedance2451.32812733997 0                327.452536428885 0.142249893877291 

21.34                          0.99832673423873 -178.796592768865 0.0124721036322612 88.8662485347892 0.0124721036322589 88.8662485347878 0.999316678329255 177.490313821716 
! Gamma         !               0                70.0543199596329 0.223454581980716 514.737419914297 
! Port Impedance2405.18909381169 0                327.339431852246 0.142102542151555 

21.35                          0.998392517079538 -178.900257118239 0.0126207158539794 88.8268023232286 0.0126207158539772 88.8268023232274 0.999314476267806 177.488164514617 
! Gamma         !               0                71.3801541238591 0.223482236124305 515.15619416366  
! Port Impedance2361.62061073734 0                327.226603041469 0.14195565111237 

21.36                          0.998457667357054 -178.999081934538 0.012765364054408 88.7890432907295 0.0127653640544059 88.7890432907284 0.999312297841151 177.486015454408 
! Gamma         !               0                72.6824112960789 0.223510005831367 515.574824219    
! Port Impedance2320.39357258947 0                327.114049006215 0.14180921869422 

21.37                          0.998521877340437 -179.093158120849 0.0129062388591705 88.7529410691824 0.0129062388591685 88.7529410691813 0.999310142533985 177.483866646415 
! Gamma         !               0                73.9623368492772 0.223537890691868 515.993310431272 
! Port Impedance2281.30645994571 0                327.001768760928 0.141663242843667 

21.38                          0.998584893367832 -179.182602685755 0.0130435198567126 88.7184570653579 0.0130435198567107 88.7184570653569 0.999308009840441 177.48171809569  
! Gamma         !               0                75.2210707443512 0.223565890297766 516.411653150178 
! Port Impedance2244.18121161651 0                326.889761324808 0.141517721519264 

21.39                          0.998646508489505 -179.267551710876 0.0131773763145311 88.6855466257001 0.0131773763145292 88.6855466256992 0.999305899263952 177.47956980702  
! Gamma         !               0                76.4596596054055 0.223594004242995 516.829852724164 
! Port Impedance2208.85982737778 0                326.77802572178  0.141372652691472 

21.4                           0.998706556069782 -179.348154765857 0.0133079678468713 88.6541607572671 0.0133079678468695 88.6541607572664 0.999303810317114 177.477421784928 
! Gamma         !               0                77.679067073114  0.223622232123457 517.247909500432 
! Port Impedance2175.20155325158 0                326.666560980466 0.141228034342571 

21.41                          0.99876490422239 -179.424570477514 0.0134354450368768 88.6242474962646 0.0134354450368751 88.6242474962638 0.999301742521551 177.475274033685 
! Gamma         !               0                78.8801827270415 0.22365057353701 517.665823824945 
! Port Impedance2143.08053485063 0                326.555366134155 0.141083864466576 

21.42                          0.998821450970272 -179.496963022026 0.0135599500160954 88.5957529955822 0.0135599500160938 88.5957529955816 0.999299695407781 177.473126557317 
! Gamma         !               0                80.0638298114738 0.223679028083451 518.083596042429 
! Port Impedance2112.38384950151 0                326.444440220779 0.140940141069154 

21.43                          0.998876120035335 -179.565499357147 0.0136816170041451 88.5686223874315 0.0136816170041436 88.5686223874309 0.999297668515083 177.470979359607 
! Gamma         !               0                81.2307719551949 0.223707595364509 518.501226496384 
! Port Impedance2083.00984695227 0                326.333782282879 0.140796862167541 

21.44                          0.998928857176058 -179.630347048901 0.0138005728112185 88.5428004654106 0.013800572811217 88.5428004654101 0.999295661391366 177.468832444108 
! Gamma         !               0                82.3817190408181 0.223736274983832 518.918715529088 
! Port Impedance2054.86674306397 0                326.223391367581 0.140654025790457 

21.45                          0.99897962700173 -179.69167257653 0.0139169373059708 88.5182322211939 0.0139169373059694 88.5182322211934 0.999293673593041 177.466685814143 
! Gamma         !               0                83.5173323516194 0.223765066546973 519.336063481603 
! Port Impedance2027.87142213295 0                326.113266526565 0.140511629978026 

21.46                          0.999028410201504 -179.749640022569 0.0140308238511962 88.4948632639509 0.0140308238511949 88.4948632639505 0.999291704684891 177.464539472815 
! Gamma         !               0                84.63822910168   0.223793969661384 519.753270693778 
! Port Impedance2001.94841222731 0                326.003406816043 0.140369672781695 

21.47                          0.999075201134555 -179.804410073194 0.0141423397095561 88.4726401450006 0.0141423397095549 88.4726401450003 0.999289754239946 177.462393423015 
! Gamma         !               0                85.7449864373029 0.223822983936396 520.17033750426  
! Port Impedance1977.02900475709 0                325.893811296724 0.14022815226415 

21.48                          0.999120005734782 -179.856139268506 0.014251586421481 88.4515106058157 0.0142515864214798 88.4515106058154 0.999287821839358 177.460247667422 
! Gamma         !               0                86.8381449832112 0.223852108983216 520.587264250496 
! Port Impedance1953.05049488393 0                325.784479033795 0.140087066499241 

21.49                          0.99916283968951 -179.904979453992 0.0143586601572312 88.4314237640047 0.0143586601572301 88.4314237640044 0.999285907072274 177.458102208515 
! Gamma         !               0                87.9182119952642 0.22388134441491 521.004051268739 
! Port Impedance1929.95552364753 0                325.675409096886 0.1399464135719  

21.5                           0.999203726857025 -179.951077393684 0.0144636520449675 88.412330249117  0.0144636520449665 88.4123302491167 0.999284009535719 177.455957048576 
! Gamma         !               0                88.9856641717664 0.223910689846393 521.420698894056 
! Port Impedance1907.69150609483 0                325.566600560051 0.139806191578063 

21.51                          0.999242697892349 -179.994574512996 0.0145666484765583 88.3941822978834 0.0145666484765573 88.3941822978832 0.999282128834473 177.453812189697 
! Gamma         !               0                90.0409501674856 0.223940144894421 521.837207460331 
! Port Impedance1886.21013243401 0                325.458052501734 0.139666398624591 

21.52                          0.999279789054623 179.964393254778 0.0146677313927238 88.3769338167308 0.0146677313927229 88.3769338167307 0.999280264580948 177.451667633781 
! Gamma         !               0                91.0844928479268 0.223969709177574 522.25357730027  
! Port Impedance1865.46693144349 0                325.349764004749 0.139527032829195 

21.53                          0.999315041172956 179.925695539463 0.0147669785490101 88.3605404179529 0.0147669785490092 88.3605404179528 0.999278416395076 177.449523382555 
! Gamma         !               0                92.1166913159145 0.223999382316251 522.669808745411 
! Port Impedance1845.42088715849 0                325.241734156249 0.139388092320358 

21.54                          0.999348498750549 179.88920753971  0.0148644637639724 88.3449594347584 0.0148644637639716 88.3449594347583 0.999276583904188 177.447379437572 
! Gamma         !               0                93.1379227379809 0.224029163932654 523.085902126126 
! Port Impedance1826.03410131861 0                325.133962047703 0.139249575237259 

21.55                          0.999380209189545 179.854809977428 0.0149602571508499 88.3301499194659 0.0149602571508491 88.3301499194658 0.999274766742901 177.445235800213 
! Gamma         !               0                94.1485439941998 0.224059053650781 523.501857771627 
! Port Impedance1807.2714952578  0                325.02644677487  0.139111479729697 

21.56                          0.999410222121273 179.822389012364 0.0150544253339184 88.3160726283456 0.0150544253339177 88.3160726283455 0.999272964553   177.443092471698 
! Gamma         !               0                95.1488931718952 0.224089051096412 523.917676009971 
! Port Impedance1789.10054590353 0                324.919187437772 0.138973803958019 

21.57                          0.999438588828523 179.791836126097 0.0151470316506202 88.3026899959667 0.0151470316506195 88.3026899959666 0.999271176983335 177.440949453084 
! Gamma         !               0                96.1392909208957 0.224119155897101 524.333357168066 
! Port Impedance1771.4910513673  0                324.812183140669 0.138836546093043 

21.58                          0.999465361748225 179.763047983011 0.0152381363404877 88.289966101411  0.0152381363404871 88.289966101411  0.999269403689697 177.43880674528  
! Gamma         !               0                97.1200416857189 0.224149367682164 524.748901571678 
! Port Impedance1754.4149222851  0                324.705432992033 0.138699704315986 

21.59                          0.999490594044306 179.735926274367 0.0153277967218033 88.27786662826   0.0153277967218027 88.27786662826   0.999267644334716 177.436664349041 
! Gamma         !               0                98.0914348280522 0.224179686082668 525.164309545434 
! Port Impedance1737.84599563058 0                324.598936104526 0.13856327681839 

21.6                           0.999514339241883 179.710377550443 0.0154160673568651 88.2663588199482 0.0154160673568646 88.2663588199482 0.999265898587754 177.434522264981 
! Gamma         !               0                99.0537456512544 0.22421011073142 525.579581412829 
! Port Impedance1721.75986819576 0                324.492691594972 0.138427261802054 

21.61                          0.999536650914982 179.686313044747 0.0155030002066659 88.2554114317567 0.0155030002066654 88.2554114317567 0.99926416612479 177.432380493572 
! Gamma         !               0                100.007236337116 0.224240641262961 525.994717496229 
! Port Impedance1706.1337473305  0                324.386698584333 0.138291657478954 

21.62                          0.999557582421018 179.663648493535 0.0155886447757296 88.2449946805069 0.0155886447757292 88.2449946805069 0.999262446628321 177.430239035153 
! Gamma         !               0                100.952156803901 0.22427127731355 526.409718116881 
! Port Impedance1690.94631686587 0                324.280956197686 0.138156462071182 

21.63                          0.999577186676069 179.642303953208 0.0156730482477957 88.2350801928013 0.0156730482477953 88.2350801928014 0.999260739787254 177.428097889931 
! Gamma         !               0                101.888745493593 0.224302018521155 526.82458359491  
! Port Impedance1676.17761642942 0                324.175463564195 0.138021673810866 

21.64                          0.999595515965765 179.622203617661 0.0157562556129893 88.2256409525122 0.015756255612989 88.2256409525122 0.999259045296805 177.425957057987 
! Gamma         !               0                102.817230095369 0.224332864525447 527.239314249334 
! Port Impedance1661.80893259973 0                324.070219817092 0.137887290940108 

21.65                          0.999612621787206 179.603275637195 0.0158383097870682 88.2166512480713 0.0158383097870679 88.2166512480715 0.999257362858391 177.423816539283 
! Gamma         !               0                103.737828211492 0.224363814967784 527.653910398063 
! Port Impedance1647.82270055198 0                323.965224093648 0.137753311710911 

21.66                          0.999628554717957 179.585451940261 0.0159192517232928 88.2080866200108 0.0159192517232925 88.2080866200109 0.999255692179538 177.421676333659 
! Gamma         !               0                104.65074797113  0.224394869491204 528.068372357906 
! Port Impedance1634.20241501998 0                323.860475535154 0.137619734385109 

21.67                          0.999643364308599 179.568668059019 0.0159991205174258 88.1999238091148 0.0159991205174256 88.1999238091148 0.999254032973773 177.419536440844 
! Gamma         !               0                105.556188596994 0.224426027740417 528.482700444573 
! Port Impedance1620.93254954975 0                323.755973286892 0.137486557234301 

21.68                          0.999657098995775 179.552862959455 0.0160779535063296 88.192140705457  0.0160779535063294 88.1921407054571 0.999252384960531 177.417396860458 
! Gamma         !               0                106.454340929144 0.224457289361789 528.896894972688 
! Port Impedance1607.99848314713 0                323.651716498117 0.137353778539786 

21.69                          0.999669806033063 179.537978876591 0.0161557863605954 88.1847162985481 0.0161557863605952 88.1847162985481 0.999250747865054 177.415257592012 
! Gamma         !               0                107.345387909868 0.224488654003341 529.310956255784 
! Port Impedance1595.38643353265 0                323.547704322028 0.137221396592488 

21.7                           0.999681531437298 179.523961155178 0.0162326531716079 88.1776306287564 0.0162326531716078 88.1776306287565 0.9992491214183  177.413118634921 
! Gamma         !               0                108.229505033094 0.224520121314728 529.724884606317 
! Port Impedance1583.0833963116  0                323.44393591575  0.137089409692898 

21.71                          0.999692319948303 179.51075809614  0.0163085865334157 88.1708647401246 0.0163085865334156 88.1708647401247 0.999247505356843 177.410979988496 
! Gamma         !               0                109.106860761476 0.224551690947241 530.138680335663 
! Port Impedance1571.07708944963 0                323.340410440308 0.136957816151003 

21.72                          0.999702215000193 179.498320808913 0.0163836176197557 88.1644006346753 0.0163836176197556 88.1644006346753 0.999245899422781 177.408841651958 
! Gamma         !               0                109.977616913929 0.22458336255379 530.552343754131 
! Port Impedance1559.35590251562 0                323.237127060605 0.136826614286223 

21.73                          0.999711258702688 179.486603069751 0.01645777625655 88.1582212282602 0.0164577762565499 88.1582212282603 0.999244303363645 177.406703624435 
! Gamma         !               0                110.841929026145 0.224615135788895 530.965875170961 
! Port Impedance1547.90885021569 0                323.134084945401 0.136695802427345 

21.74                          0.999719491831029 179.475561186007 0.0165310909901747 88.1523103079941 0.0165310909901746 88.1523103079942 0.999242716932306 177.404565904969 
! Gamma         !               0                111.699946686352 0.224647010308679 531.379274894334 
! Port Impedance1536.72552979592 0                323.031283267285 0.136565378912459 

21.75                          0.999726953823278 179.465153866336 0.0166035891517748 88.1466524912847 0.0166035891517748 88.1466524912848 0.999241139886886 177.402428492516 
! Gamma         !               0                112.55181384837  0.224678985770858 531.792543231372 
! Port Impedance1525.79608193901 0                322.92872120266  0.136435342088892 

21.76                          0.999733682783931 179.455342096729 0.0166752969178834 88.1412331864676 0.0166752969178834 88.1412331864677 0.999239571990671 177.400291385957 
! Gamma         !               0                113.397669123794 0.22471106183473 532.205680488149 
! Port Impedance1515.1111548212  0                322.826397931716 0.136305690313151 

21.77                          0.999739715492913 179.446089022262 0.0167462393675819 88.1360385550265 0.0167462393675819 88.1360385550266 0.999238013012017 177.39815458409  
! Gamma         !               0                114.237646055002 0.224743238161168 532.618686969689 
! Port Impedance1504.66187103187 0                322.724312638408 0.136176421950852 

21.78                          0.999745087419125 179.437359834397 0.0168164405364236 88.1310554753851 0.0168164405364236 88.1310554753852 0.999236462724271 177.396018085641 
! Gamma         !               0                115.071873370487 0.224775514412608 533.031562979977 
! Port Impedance1494.43979709043 0                322.622464510439 0.136047535376665 

21.79                          0.999749832737825 179.429121663687 0.0168859234673262 88.1262715082381 0.0168859234673263 88.1262715082382 0.999234920905681 177.393881889266 
! Gamma         !               0                115.900475223901 0.224807890253042 533.444308821959 
! Port Impedance1484.43691532284 0                322.52085273923  0.135919028974246 

21.8                           0.999753984351214 179.421343477688 0.0169547102586242 88.121674863386  0.0169547102586242 88.1216748633861 0.999233387339309 177.391745993554 
! Gamma         !               0                116.723571418055 0.22484036534801 533.856924797551 
! Port Impedance1474.64559788482 0                322.419476519906 0.135790901136181 

21.81                          0.999757573911682 179.413995983908 0.0170228221094597 88.1172543680358 0.0170228221094598 88.117254368036  0.999231861812956 177.389610397028 
! Gamma         !               0                117.541277615026 0.224872939364587 534.269411207638 
! Port Impedance1465.05858274104 0                322.318335051272 0.135663150263923 

21.82                          0.999760631847221 179.407051537583 0.0170902793626783 88.1129994365214 0.0170902793626784 88.1129994365216 0.999230344119073 177.387475098147 
! Gamma         !               0                118.3537055334   0.224905611971378 534.681768352086 
! Port Impedance1455.66895142826 0                322.217427535789 0.135535774767729 

21.83                          0.999763187388595 179.400484054104 0.0171571015453821 88.1089000414052 0.0171571015453822 88.1089000414054 0.999228834054682 177.385340095317 
! Gamma         !               0                119.160963133603 0.224938382838506 535.093996529741 
! Port Impedance1446.47010844828 0                322.116753179557 0.135408773066607 

21.84                          0.999765268597894 179.394268925872 0.0172233074072864 88.1049466859006 0.0172233074072865 88.1049466859007 0.999227331421294 177.383205386881 
! Gamma         !               0                119.963154792195 0.224971251637607 535.506096038435 
! Port Impedance1437.45576215119 0                322.016311192292 0.13528214358825 

21.85                          0.999766902398164 179.388382943417 0.0172889149570129 88.1011303775841 0.017288914957013 88.1011303775842 0.999225836024836 177.381070971134 
! Gamma         !               0                120.760381465907 0.225004218041816 535.918067174992 
! Port Impedance1428.61990698326 0                321.916100787305 0.13515588476898 

21.86                          0.999768114603818 179.382804220563 0.0173539414964444 88.0974426033311 0.0173539414964445 88.0974426033313 0.999224347675563 177.378936846316 
! Gamma         !               0                121.55274084616  0.225037281725762 536.329910235231 
! Port Impedance1419.9568069859  0                321.816121181483 0.13502999505369 

21.87                          0.999768929951607 179.377512123477 0.0174184036532576 88.0938753054419 0.0174184036532577 88.0938753054419 0.999222866187992 177.376803010623 
! Gamma         !               0                122.340327504725 0.22507044236556 536.741625513972 
! Port Impedance1411.46098044277 0                321.716371595266 0.134904472895785 

21.88                          0.999769372131931 179.372487203387 0.0174823174117443 88.0904208588968 0.0174823174117444 88.0904208588969 0.999221391380818 177.374669462201 
! Gamma         !               0                123.123233031139 0.225103699638799 537.153213305039 
! Port Impedance1403.12718558185 0                321.616851252628 0.134779316757126 

21.89                          0.999769463820316 179.367711132825 0.0175456981420206 88.0870720497047 0.0175456981420207 88.0870720497048 0.999219923076846 177.372536199156 
! Gamma         !               0                123.901546162443 0.225137053224538 537.564673901266 
! Port Impedance1394.9504072478  0                321.517559381058 0.134654525107971 
