! Touchstone file exported from HFSS 2019.2.0
!        File:           C:/Users/jgarrett/Documents/Ansoft/Waveguide Cavity/WR-28-waveguide-cavity.aedt
!        Generated:      4:38:05 PM  Feb 19, 2021
!        Design:         brass-1.5mm-iris
!        Project:        WR-28-waveguide-cavity
!        Setup:          Setup1
!        Solution:       Sweep
!
! Variables:
!        irisD = 1.59mm
!        irisT = 5mil
!        waveguideL = 10mm
!
!Data is not renormalized
# GHZ S MA
! Modal data exported
! Port[1] = 1:1
! Port[2] = 2:1
21                             0.996949706121027 -179.997371295999 0.00244239899598325 -0.2885766656333 0.00244239899598327 -0.288576665633303 0.996947298928018 -179.997470412138 
! Gamma         !               37.6279276501448 0                37.6242998915689 0                
! Port Impedance0                4406.55024868137 2.63024779541309E-13 4406.97513101808 

21.01                          0.997154898557839 -179.997549007884 0.00227821720002164 -0.28868753218469 0.00227821720002164 -0.288687532184703 0.997152673642407 -179.997641457165 
! Gamma         !               35.0903010335816 0                35.0864108981488 0                
! Port Impedance0                4727.46901260736 4.71498735910326E-13 4727.99316125192 

21.02                          0.997364527500139 179.999022634229 0.00210115421131433 -0.284589425753628 0.00210115421131433 -0.284589425753483 0.997362342574027 179.998932881851 
! Gamma         !               32.3528926478437 0                32.3486733231711 0                
! Port Impedance2.76788338491537E-13 5129.90505736401 5.78107628461577E-14 5130.57416471083 

21.03                          0.997562322090957 179.998637889377 0.00190742615519682 -0.286157873885166 0.00190742615519682 -0.286157873885044 0.997560254784923 179.99856231458  
! Gamma         !               29.3598747861746 0                29.355225267365  0                
! Port Impedance4.62919651125586E-11 5655.54947574023 2.81225752541826E-14 5656.44524739326 

21.04                          0.997888693565992 -179.998183240991 0.00169088881029522 -0.289119632051233 0.00169088881029522 -0.289119632051233 0.997887188021541 -179.998251923858 
! Gamma         !               26.0232008179935 0                26.0179550291553 0                
! Port Impedance-3.47674143624657E-13 6383.73359398936 0                6385.02069431665 

21.05                          0.998312576558996 179.995893361879 0.00144192652566846 -0.271167753793987 0.00144192652566845 -0.271167753794124 0.998311360068474 179.995795498829 
! Gamma         !               22.1883722451139 0                22.1822195907767 0                
! Port Impedance4.21923391631705E-14 7490.59625844198 5.7960449222057E-14 7492.6739157013  

21.06                          0.998576797570847 -179.998776429922 0.00113985811508925 -0.28957515371058 0.00113985811508925 -0.28957515371058 0.998576107600392 -179.998822969897 
! Gamma         !               17.5314829274318 0                17.5236952929455 0                
! Port Impedance0                9484.82770360477 1.40459131375023E-13 9489.0428174884  

21.07                          0.999101860034739 -179.999228267327 0.000719171823877076 -0.289955419947959 0.000719171823877076 -0.289955419947959 0.999102022646232 -179.999258118595 
! Gamma         !               11.0586650665824 0                11.0463150480467 0                
! Port Impedance0                15043.5925845436 -6.41568322004252E-13 15060.411645602  

21.08                          0.99999021057049 179.963080935753 0.000516899729343223 89.6723743806085 0.000516899729343223 89.6723743806085 0.999990553469819 179.962965920466 
! Gamma         !               0                7.92796309604178 0                7.94516178349137 
! Port Impedance20994.1704583491 0                20948.7249172995 0                

21.09                          0.999980294224457 179.926650696099 0.00102614073442642 89.6360097081845 0.00102614073442642 89.6360097081845 0.999981005238372 179.92654055085  
! Gamma         !               0                15.7507816341461 0                15.7594453899996 
! Port Impedance10572.1715486179 0                10566.3594968058 0                

21.1                           0.999679079825303 179.895578875748 0.00135673998195093 89.5568722598101 0.00135673998195093 89.5568722598104 0.999680663011776 179.895535637851 
! Gamma         !               0                20.8184892979238 0                20.8250448633788 
! Port Impedance8002.45012556465 -6.6628386530895E-14 7999.93101523623 8.89824712285331E-15 

21.11                          0.999836476079412 179.887445041583 0.00162019420380257 89.5718862585209 0.00162019420380257 89.5718862585209 0.999838159576307 179.887317735472 
! Gamma         !               0                24.8760873638954 0                24.8815738941518 
! Port Impedance6700.32536440425 -3.71781669486968E-14 6698.84790409557 5.53562747808925E-15 

21.12                          0.999963782682872 179.867924171221 0.00184746253117492 89.5774519322911 0.00184746253117492 89.5774519322911 0.999965074848816 179.867773296917 
! Gamma         !               0                28.3604971703864 0                28.365309740344  
! Port Impedance5879.89818954136 0                5878.90058290004 0                

21.13                          0.999963483129234 179.850335834639 0.00204985985434617 89.5634840954818 0.00204985985434617 89.5634840954819 0.999964793340174 179.850179215637 
! Gamma         !               0                31.4627355500846 0                31.4670736676963 
! Port Impedance5302.64739810238 1.50738406981611E-13 5301.91636387    -1.03409151322148E-14 

21.14                          0.999939039452428 179.837433288952 0.00223385324933302 89.5475900664799 0.00223385324933302 89.5475900664799 0.999940543615679 179.837265465769 
! Gamma         !               0                34.2866957895377 0                34.2906766494582 
! Port Impedance4868.20750128981 1.17013425311668E-14 4867.64234323485 -6.89262825673423E-14 

21.15                          0.999935445935612 179.826899187341 0.00240377008576828 89.535648064294  0.00240377008576828 89.5356480642939 0.999937124440788 179.826715531776 
! Gamma         !               0                36.8963296190989 0                36.9000289468299 
! Port Impedance4526.02489722555 2.1060912503517E-15 4525.5711509858  -1.35565770526817E-13 

21.16                          0.999948894610343 179.816809716297 0.00256254577507355 89.5265646507246 0.00256254577507355 89.5265646507246 0.999950689218998 179.816610203283 
! Gamma         !               0                39.3343186274425 0                39.3377886872087 
! Port Impedance4247.50368475765 0                4247.12900452945 0                

21.17                          0.999963495555663 179.806535157413 0.0027121945552247 89.5180786537303 0.0027121945552247 89.5180786537302 0.999965374006461 179.806322074529 
! Gamma         !               0                41.6308293904455 0                41.6341080443733 
! Port Impedance4015.09224269908 -4.73213207138628E-16 4014.77605727875 2.61303531396826E-15 

21.18                          0.99996796028941 179.796228153927 0.00285414401333971 89.5088025279046 0.00285414401333971 89.5088025279046 0.999969921727167 179.796003936487 
! Gamma         !               0                43.8081172947966 0                43.8112330096834 
! Port Impedance3817.34224852846 -4.45252119697883E-16 3817.07077134659 1.94970876694947E-15 

21.19                          0.999958547594515 179.786284551348 0.00298945309749365 89.4983661972417 0.00298945309749365 89.4983661972418 0.999960609320222 179.786050798029 
! Gamma         !               0                45.8831578841301 0                45.886132701875  
! Port Impedance3646.42586797621 -2.48004519349222E-16 3646.18946861678 9.69192282161783E-16 

21.2                           0.999936988598271 179.777049318617 0.00311894492175619 89.4870334105589 0.00311894492175619 89.4870334105589 0.999939172639985 179.776806634493 
! Gamma         !               0                47.8692496834088 0                47.8721010836853 
! Port Impedance3496.78534247752 0                3496.57706386708 0                

21.21                          0.999907695912077 179.768714770917 0.00324328502800683 89.4753247379551 0.00324328502800684 89.4753247379551 0.99991002052361 179.768462986085 
! Gamma         !               0                49.7770409366825 0                49.7797830582475 
! Port Impedance3364.35120152229 2.52222664418877E-16 3364.16587608663 -9.22443711345721E-16 

21.22                          0.999875677738127 179.761320317785 0.00336302734763504 89.4637753091864 0.00336302734763504 89.4637753091866 0.999878153632436 179.761058800241 
! Gamma         !               0                51.6152147617245 0                51.6178592331466 
! Port Impedance3246.06620532768 4.90042603227574E-16 3245.89990379092 -1.81373041018703E-15 

21.23                          0.999845338984763 179.754791405321 0.00347864186138782 89.4528153981464 0.00347864186138783 89.4528153981464 0.999847968745196 179.754519337578 
! Gamma         !               0                53.3909621257458 0                53.393518648117  
! Port Impedance3139.58307698568 7.06613215230618E-16 3139.43275135486 -2.70014170484038E-15 

21.24                          0.999819962408426 179.748985020466 0.00359053211037548 89.4427318595767 0.00359053211037548 89.4427318595768 0.999822741606205 179.74870159806  
! Gamma         !               0                55.1103178166646 0                55.1127945831797 
! Port Impedance3043.06570227173 9.00274185181849E-16 3042.92894703565 -3.61142778993322E-15 

21.25                          0.999801613895249 179.743728083093 0.00369904708604444 89.4336736463338 0.00369904708604444 89.4336736463339 0.999804532887632 179.743432635219 
! Gamma         !               0                56.7784049998054 0                56.7808090047675 
! Port Impedance2955.05438775487 1.07165749091793E-15 2954.92927566972 -4.58097692499793E-15 

21.26                          0.999791271529668 179.738844974941 0.0038044899353874 89.4256768045459 0.0038044899353874 89.4256768045459 0.999794317334305 179.738537023099 
! Gamma         !               0                58.3996170374189 0                58.4019543083204 
! Port Impedance2874.37213076335 1.22235352101639E-15 2874.25709717552 -5.64843499906417E-15 

21.27                          0.999789047306206 179.734174862442 0.00390712476583813 89.4186947390018 0.00390712476583814 89.4186947390019 0.999792205248472 179.73385413572  
! Gamma         !               0                59.9777551867318 0                59.9800309615913 
! Port Impedance2800.0579210069  1.35428037760392E-15 2799.95168062458 -6.86409908784283E-15 

21.28                          0.99979442554085 179.729580984673 0.00400718222169136 89.4126265734165 0.00400718222169137 89.4126265734166 0.999797680558095 179.729247407862 
! Gamma         !               0                61.516134596454  0                61.5183534614098 
! Port Impedance2731.31831888082 1.46938543497202E-15 2731.2198047601  -8.29580802720754E-15 

21.29                          0.999806479332703 179.724954252012 0.00410486418754872 89.4073406375082 0.00410486418754873 89.4073406375082 0.999809816923514 179.724607918816 
! Gamma         !               0                63.0176670899963 0                63.0198330875248 
! Port Impedance2667.49167221916 1.56950899478581E-15 2667.39999028215 -1.00402024591972E-14 

21.3                           0.999824049190073 179.720213153103 0.00420034781526625 89.4026923947114 0.00420034781526627 89.4026923947116 0.999827456047196 179.719854292961 
! Gamma         !               0                64.4849266617351 0                64.4870433768149 
! Port Impedance2608.02124941008 1.65632840104431E-15 2607.93564402928 -1.22421805660995E-14 

21.31                          0.999845880656376 179.715301487462 0.00429378899278672 89.3985372275449 0.00429378899278674 89.3985372275449 0.999849345041212 179.714930431439 
! Gamma         !               0                65.9202019035152 0                65.9222725329919 
! Port Impedance2552.43477685245 1.73134210405389E-15 2552.35460445426 -1.51305776904415E-14 

21.32                          0.999870724156244 179.71018499311  0.00438532533541005 89.3947389336767 0.00438532533541007 89.3947389336768 0.999874236075004 179.709802142077 
! Gamma         !               0                67.3255384141721 0                67.32756582316   
! Port Impedance2500.32865144446 1.79587309006995E-15 2500.25336001345 -1.90880870854466E-14 

21.33                          0.999897402936735 179.704847577574 0.00447507876146648 89.3911748725983 0.00447507876146649 89.3911748725984 0.999900954172466 179.704453374361 
! Gamma         !               0                68.7027734363269 0                68.7047602044941 
! Port Impedance2451.35561611899 1.85108107709643E-15 2451.28472910498 -2.47994945682138E-14 

21.34                          0.999924855584954 179.699287592173 0.004563157704513 89.3877386255399 0.00456315770451302 89.38773862554   0.999928439630561 179.698882498329 
! Gamma         !               0                70.0535643936515 0                70.0555128535165 
! Port Impedance2405.21503509065 1.8979780101178E-15 2405.1481386429  -3.359832197831E-14 

21.35                          0.999952159184237 179.693514400695 0.00464965900804305 89.3843408913051 0.00464965900804307 89.384340891305  0.999955771112201 179.693098877904 
! Gamma         !               0                71.3794125921107 0                71.381324860978  
! Port Impedance2361.64514465541 1.9374440764896E-15 2361.5818774005  -4.83882315168752E-14 

21.36                          0.999978538317073 179.687545366784 0.00473466954401647 89.3809091899554 0.00473466954401649 89.3809091899554 0.99998217461288 179.68711986259  
! Gamma         !               0                72.6816830505543 0                72.6835610573318 
! Port Impedance2320.41682213685 1.97024288443434E-15 2320.35686692221 -7.65659811677357E-14 

21.37                          1.00000336415525 179.681403302947 0.00481826759235685 89.3773868086783 0.00481826759235687 89.3773868086783 1.00000702253426 179.680968240299 
! Gamma         !               0                73.9616212062363 0                73.963466714104  
! Port Impedance2281.32853357072 1.99703520080575E-15 2281.27161074218 -1.42105116662616E-13 

21.38                          1.00002614695811 179.675114374656 0.00490052401461786 89.3737313086056 0.00490052401461788 89.3737313086055 1.00002982617977 179.67467014468  
! Gamma         !               0                75.2203670768463 0                75.2221817025338 
! Port Impedance2244.202205364   2.01839103864449E-15 2244.14806725162 -3.64588477043514E-13 

21.39                          1.00004652449832 179.668706425162 0.00498150325123464 89.3699128191439 0.00498150325123466 89.3699128191438 1.00005022418689 179.668253382617 
! Gamma         !               0                76.4589673368881 0                76.4607525671617 
! Port Impedance2208.87982665544 2.03480008454496E-15 2208.8282530197  -2.61735643947523E-12 

21.4                           1.00006424827165 179.662207673057 0.00506126416819153 89.3659122753855 0.00506126416819155 89.3659122753854 1.00006796874948 179.661746133914 
! Gamma         !               0                77.6783856719371 0                77.6801428777749 
! Port Impedance2175.22063429819 2.04668054925457E-15 2175.17142853636 -4.57772486750019E-12 

21.41                          1.00007916881878 179.655645729877 0.00513986077560053 89.3617197010321 0.00513986077560056 89.361719701032  1.00008291095532 179.655175970576 
! Gamma         !               0                78.8795117017104 0                78.8812421505481 
! Port Impedance2143.09876596405 2.05438656074005E-15 2143.05175196247 -3.87458073944748E-13 

21.42                          1.00009122107698 179.649046885827 0.00521734283763901 89.3573326004369 0.00521734283763902 89.3573326004367 1.0000949861551  179.6485691438   
! Gamma         !               0                80.0631687065249 0                80.064873572887  
! Port Impedance2112.4012920714  2.05821422335166E-15 2112.35631152253 -1.2702636515485E-13 

21.43                          1.00010041036861 179.642435615387 0.0052937563905578 89.3527544956576 0.00529375639055781 89.3527544956576 1.00010419996851 179.641950090506 
! Gamma         !               0                81.230120347601  0                81.2318007223665 
! Port Impedance2083.02655633333 2.05840645471255E-15 2082.98346649319 -6.03081466995964E-14 

21.44                          1.00010679940276 179.635834259796 0.00536914418304472 89.3479936251257 0.00536914418304473 89.3479936251256 1.00011061530289 179.635341116475 
! Gamma         !               0                82.3810765368429 0                82.3827334353567 
! Port Impedance2054.88276931789 2.05515669095055E-15 2054.84144109153 -3.41315332125667E-14 

21.45                          1.00011049649862 179.629262849133 0.00544354605110147 89.3430618074966 0.00544354605110148 89.3430618074965 1.00011434059259 179.628762218852 
! Gamma         !               0                83.5166985840541 0                83.5183329532503 
! Port Impedance2027.8868106619  2.04861152493444E-15 2027.8471269699  -2.1397266611132E-14 

21.46                          1.00011164512072 179.622739032353 0.00551699923774659 89.337973465769  0.00551699923774661 89.3379734657689 1.00011551934874 179.622231016403 
! Gamma         !               0                84.6376037274057 0                84.6392164520604 
! Port Impedance2001.96320431712 2.03887231301399E-15 2001.92505869482 -1.43367580696208E-14 

21.47                          1.00011041473384 179.616278088959 0.0055895386662643 89.3327448017812 0.00558953866626431 89.3327448017811 1.00011432102727 179.615762761644 
! Gamma         !               0                85.7443691351342 0                85.7459610436931 
! Port Impedance1977.043238045   2.02599575357532E-15 1977.00653343631 -1.00616415810118E-14 

21.48                          1.00010699293134 179.609893000666 0.0056611971743556 89.3273931072476 0.00566119717435561 89.3273931072475 1.0001109331687  179.609370411538 
! Gamma         !               0                86.8375354519807 0                86.8391073209061 
! Port Impedance1953.06420376299 2.00999340476081E-15 1953.02885147764 -7.3039677942298E-15 

21.49                          1.00010157875663 179.603594565604 0.00573200571538654 89.3219361988643 0.00573200571538656 89.3219361988642 1.0001055547297  179.603064742956 
! Gamma         !               0                87.9176099521197 0                87.9191625108513 
! Port Impedance1929.96873961749 1.99083006769897E-15 1929.9346584261  -5.43847647341667E-15 

21.5                           1.000094377118   179.597391541095 0.00580199353193971 89.3163919606867 0.00580199353193972 89.3163919606866 1.00009839050641 179.596854494426 
! Gamma         !               0                88.9850693506457 0                88.986603285298  
! Port Impedance1907.70425806781 1.9684209130394E-15 1907.6713734138  -4.12903303503327E-15 

21.51                          1.00008559418785 179.591290804048 0.00587118830604132 89.3107779814203 0.00587118830604133 89.3107779814202 1.00008964654102 179.590746526662 
! Gamma         !               0                90.0403623177541 0                90.0418782746554 
! Port Impedance1886.22244700152 1.94262716954155E-15 1886.19069031245 -3.1824581970916E-15 

21.52                          1.00007543367561 179.585297520461 0.00593961628973013 89.305111272661  0.00593961628973013 89.3051112726609 1.00007952640077 179.584745991866 
! Gamma         !               0                91.0839117331532 0                91.0854103220051 
! Port Impedance1865.47883311057 1.91325011937214E-15 1865.44814119437 -2.48166103833432E-15 

21.53                          1.00006409386642 179.579415317567 0.00600730241904093 89.2994080561461 0.00600730241904094 89.2994080561461 1.00006822822164 179.578856505677 
! Gamma         !               0                92.1161167127683 0                92.117598509489  
! Port Impedance1845.43239854962 1.88002304971022E-15 1845.40271306368 -1.9525185306891E-15 

21.54                          1.00005176532335 179.573646453805 0.00607427041397661 89.2936836091015 0.00607427041397662 89.2936836091015 1.00005594241473 179.573080316943 
! Gamma         !               0                93.1373544352368 0                93.1388199845258 
! Port Impedance1826.04524335929 1.84260068559798E-15 1826.01651034218 -1.54638141627439E-15 

21.55                          1.0000386291589  179.567991983106 0.00614054286662338 89.2879521580087 0.00614054286662338 89.2879521580086 1.00004284994104 179.567418471816 
! Gamma         !               0                94.1479817918403 0                94.1494316094981 
! Port Impedance1807.28228733513 1.80054546302796E-15 1807.25445679247 -1.23033024893496E-15 

21.56                          1.00002485578979 179.562451911059 0.00620614131921257 89.2822268122934 0.00620614131921257 89.2822268122933 1.00002912106887 179.561870969727 
! Gamma         !               0                95.148336880292  0                95.1497714553238 
! Port Impedance1789.11100600871 1.75330977647967E-15 1789.08403154582 -9.81500087711389E-16 

21.57                          1.00001060409808 179.557025341348 0.00627108633363902 89.276519530559  0.00627108633363902 89.276519530559  1.00001491453698 179.556436909632 
! Gamma         !               0                96.1387403600731 0                96.1401601565979 
! Port Impedance1771.50119622222 1.70021302697571E-15 1771.4750347176  -7.83647053000382E-16 

21.58                          0.999996020930305 179.551710611475 0.00633539755369902 89.2708411130057 0.00633539755369902 89.2708411130056 1.00000037705523 179.551114625578 
! Gamma         !               0                97.1194966846752 0                97.1209021436651 
! Port Impedance1754.42476745521 1.64041186869223E-15 1754.39937876947 -6.2500134610561E-16 

21.59                          0.999981240874654 179.546505417317 0.00639909376110595 89.2652012146066 0.00639909376110596 89.2652012146065 0.999985643082851 179.545901811084 
! Gamma         !               0                98.0908952241484 0                98.0922867650129 
! Port Impedance1737.85555562575 1.57286144936648E-15 1737.83090234154 -4.96885827420876E-16 

21.6                           0.999966386263966 179.5414069264   0.00646219292616954 89.2596083744374 0.00646219292616954 89.2596083744374 0.999970834832195 179.540795632279 
! Gamma         !               0                99.0532112896508 0                99.0545893116864 
! Port Impedance1721.7691565606  1.49626458080231E-15 1721.74520374977 -3.92804376557908E-16 

21.61                          0.999951567359447 179.536411880086 0.00652471225388089 89.2540700572836 0.00652471225388089 89.2540700572836 0.999956062452899 179.535792829949 
! Gamma         !               0                100.006707070259 0                100.008071953974 
! Port Impedance1706.14277672537 1.40900453370336E-15 1706.11949173998 -3.07826744624251E-16 

21.62                          0.999936882676459 179.531516685033 0.00658666822602639 89.2485927042896 0.00658666822602639 89.2485927042896 0.999941424357898 179.530889810875 
! Gamma         !               0                100.951632491051 0                100.952984599381 
! Port Impedance1690.95509913975 1.3090553302743E-15 1690.93245142421 -2.38164899225931E-16 

21.63                          0.999922419419459 179.526717494468 0.00664807663985287 89.2431817899657 0.00664807663985287 89.2431817899657 0.9999270076584  179.526082728994 
! Gamma         !               0                101.888226000392 0                101.889565679816 
! Port Impedance1676.18616268556 1.19386069659681E-15 1676.16412360726 -1.80876134494514E-16 

21.64                          0.999908253998287 179.522010279852 0.00670895264372329 89.2378418833502 0.0067089526437233 89.2378418833501 0.999912888680048 179.521367556966 
! Gamma         !               0                102.816715293442 0                102.81804287501  
! Port Impedance1661.81725325499 1.06016873266365E-15 1661.79579595143 -1.33651527829963E-16 

21.65                          0.999894452602489 179.51739089363  0.00676931077013333 89.2325767115282 0.00676931077013333 89.2325767115282 0.999899133537018 179.516740148835 
! Gamma         !               0                103.737317978082 0                103.738633778358 
! Port Impedance1647.83080539037 9.03803032438164E-16 1647.8099046309  -9.46629955617683E-17 

21.66                          0.999881071814268 179.51285512372  0.00682916496639976 89.2273892240616 0.00682916496639976 89.2273892240616 0.999885798744636 179.512196294441 
! Gamma         !               0                104.650242188758 0                104.651546510696 
! Port Impedance1634.21031324132 7.19341046039096E-16 1634.18994530184 -6.24511718855237E-17 

21.67                          0.999868159244055 179.508398740462 0.00688852862328519 89.2222816571775 0.00688852862328518 89.2222816571775 0.999872931854571 179.507731766298 
! Gamma         !               0                105.555687153146 0                105.556980286893 
! Port Impedance1620.94024981375 4.99654516311441E-16 1620.92039236295 -3.58422594387814E-17 

21.68                          0.999855754175623 179.504017536683 0.0069474146017816 89.217255596813  0.0069474146017816 89.217255596813  0.999860572099502 179.5033423596   
! Gamma         !               0                106.453843715983 0                106.455125939627 
! Port Impedance1608.00599361347 2.35240587835079E-16 1607.98662560945 -1.38858093144208E-17 

21.69                          0.999843888210169 179.499707361549 0.00700583525824259 89.2123120398211 0.00700583525824259 89.2123120398211 0.999848751036744 179.499023926017 
! Gamma         !               0                107.344894823965 0                107.346166404224 
! Port Impedance1595.39376189754 -8.6772078277546E-17 1595.37486349362 4.19296321763862E-18 

21.7                           0.999832585900963 179.495464148816 0.00706380246802603 89.2074514528176 0.00706380246802603 89.2074514528176 0.999837493182407 179.49477240191  
! Gamma         !               0                108.229015975181 0                108.230277168045 
! Port Impedance1583.09054984109 -4.84134739583845E-16 1583.07210229986 1.90289419585228E-17 

21.71                          0.999821865371938 179.491283940062 0.0071213276477852 89.2026738282766 0.0071213276477852 89.2026738282766 0.999826816629498 179.490583831544 
! Gamma         !               0                109.106375636185 0                109.107626687539 
! Port Impedance1571.08407500999 -9.81838100048919E-16 1571.0660606249  3.11452744400754E-17 

21.72                          0.999811738915157 179.487162903679 0.00717842177652715 89.1979787377473 0.00717842177652715 89.1979787377473 0.999816733644909 179.486454385857 
! Gamma         !               0                109.977135629721 0                109.978376775756 
! Port Impedance1559.36272660126 -1.6159074019777E-15 1559.34512862478 4.09752546185473E-17 

21.73                          0.999802213563408 179.483097349287 0.00723509541554088 89.193365381585  0.00723509541554088 89.193365381585  0.999807251241513 179.482380377298 
! Gamma         !               0                110.841451494857 0                110.842682962838 
! Port Impedance1547.91551897462 -2.43971947353709E-15 1547.89832155246 4.88791561082603E-17 

21.74                          0.999793291635168 179.479083739641 0.00729135872728395 89.188832635932  0.00729135872728395 89.188832635932  0.999798371722684 179.478358271197 
! Gamma         !               0                111.699472823212 0                111.700694831757 
! Port Impedance1536.73204905315 -3.53494496010652E-15 1536.71523716393 5.51579398756182E-17 

21.75                          0.999784971250181 179.47511869869  0.00734722149330512 89.1843790960272 0.00734722149330513 89.1843790960273 0.999790093197405 179.474384694097 
! Gamma         !               0                112.551343571756 0                112.552556331348 
! Port Impedance1525.80245721809 -5.03141147399461E-15 1525.78601661791 6.00638473259234E-17 

21.76                          0.999777246814522 179.471199017363 0.007402693131271 89.1800031164704 0.00740269313127101 89.1800031164704 0.999782410064917 179.470456439453 
! Gamma         !               0                113.397202355079 0                113.398406068483 
! Port Impedance1515.11739136393 -7.14523635272492E-15 1515.10130853535 6.38091030237376E-17 

21.77                          0.999770109474695 179.467321656986 0.00745778271115618 89.1757028482795 0.00745778271115618 89.1757028482795 0.999775313468404 179.466570471038 
! Gamma         !               0                114.2371827184   0                114.238377581052 
! Port Impedance1504.66797381657 -1.02571936256229E-14 1504.65223592167 6.6572811847295E-17 

21.78                          0.999763547540748 179.463483750732 0.00751249897065059 89.1714762728811 0.00751249897065058 89.1714762728811 0.999768791717723 179.462723924385 